 <VTKFile type="UnstructuredGrid" version="0.1" byte_order="BigEndian">
    <UnstructuredGrid>
       <Piece NumberOfPoints="          36" NumberOfCells="          58 ">
          <PointData Scalars="scalars">
              <DataArray type="UInt32" NumberOfComponents="1" Name="vertex partitioning" Format="ascii">
           6
           3
          13
          15
          10
          10
          11
           1
           9
           0
           0
           4
           2
           7
           5
          14
          11
           8
           2
           4
           5
          10
          13
           9
           8
           3
          14
          12
           6
           2
           7
           9
           7
           7
          12
          15
              </DataArray>
          </PointData>
          <CellData Scalars="scalars">
              <DataArray type="UInt32" NumberOfComponents="1" Name="Element partitioning" Format="ascii">
           4
           7
           0
          10
          10
          12
          14
          10
          10
          11
           9
           5
           2
           7
           2
           0
          11
           1
           2
           6
           1
           0
          14
           4
          14
           2
          14
          13
           4
           2
           5
          15
          12
           4
          15
          10
          13
          14
           8
          13
           9
          11
           2
           8
           9
           1
           6
           6
           3
           5
           8
           7
          12
          15
           3
           3
          15
           7
              </DataArray>
          </CellData>
          <Points>
             <DataArray type="Float32" NumberOfComponents="3" Name="Vertex coordinates" Format="ascii">
  -1.0000000000000000       -1.0000000000000000                0
   1.0000000000000000       -1.0000000000000000                0
   1.0000000000000000        1.0000000000000000                0
  -1.0000000000000000        1.0000000000000000                0
   0.0000000000000000       0.50000000000000000                0
  0.12940952606975709       0.48296291220175580                0
  0.25000000630919567       0.43301269824960342                0
  0.35355339832042876       0.35355338286611859                0
  0.43301270917745083       0.24999998738160850                0
  0.48296291785842560       0.12940950495877676                0
  0.49999999999999950      -2.18556950009312062E-008           0
  0.48296290654508506      -0.12940954718073716                0
  0.43301268732175524      -0.25000002523678239                0
  0.35355336741180776      -0.35355341377473820                0
  8.77245212163392241E-002  0.11432481755816126                0
   0.0000000000000000        1.0000000000000000                0
  0.26241198100866359       0.63351854389912221                0
   1.0000000000000000        0.0000000000000000                0
  0.67984913461536689      -8.95038693063141544E-002           0
  0.18343303775905095      -0.14075313840654755                0
  0.28548175684626287       0.11825040453094883                0
  4.03330151639390150E-002  0.30635965718669173                0
  0.50000000000000000        1.0000000000000000                0
  0.65891862931079848       0.50560602045851233                0
   1.0000000000000000       0.50000000000000000                0
   1.0000000000000000      -0.50000000000000000                0
  9.87393759698601270E-002  0.75000000000000000                0
 -0.45328598680114240       8.26762086997684942E-002           0
  -1.0000000000000000        0.0000000000000000                0
  0.65891860540300118      -0.50560609363490616                0
   0.0000000000000000       -1.0000000000000000                0
  0.66280269703211803       0.27454184083103828                0
 -8.78652232827892288E-002 -0.53203924617854104                0
  0.50000000000000000       -1.0000000000000000                0
 -0.27332973469338701       0.34204799925309376                0
 -0.78625541862079495       0.50580981157283733                0
             </DataArray>
          </Points>
          <Cells>
             <DataArray type="UInt64" Name="connectivity" Format="ascii">
          12          11          19
          13          30          33
          20           9           8
          20           6          21
          15          34           4
          34          35          27
          16          22          26
           4          21           5
           5          21           6
          16           5           6
           8          31          23
          21          14          20
          12          18          11
          32          30          13
          29          25          18
          10           9          20
           7          16           6
          20           8           7
          18          12          29
          32          27          28
           7           6          20
          18           9          10
          26          15           4
          20          11          10
           5          16          26
          13          12          19
           4           5          26
          23          24           2
          18          10          11
          29          12          13
          27          14          34
          28          27          35
          14          19          20
          20          19          11
           3          35          15
          34          21           4
          23          22          16
          22          15          26
          24          23          31
           2          22          23
          18          31           9
          16           7          23
          25          17          18
          17          31          18
          31           8           9
           8          23           7
           0          32          28
          32           0          30
           1          25          29
          14          21          34
          24          31          17
          32          13          19
          27          19          14
          34          15          35
          33           1          29
          13          33          29
           3          28          35
          19          27          32
             </DataArray>
             <DataArray type="UInt32" Name="offsets" Format="ascii">
           3
           6
           9
          12
          15
          18
          21
          24
          27
          30
          33
          36
          39
          42
          45
          48
          51
          54
          57
          60
          63
          66
          69
          72
          75
          78
          81
          84
          87
          90
          93
          96
          99
         102
         105
         108
         111
         114
         117
         120
         123
         126
         129
         132
         135
         138
         141
         144
         147
         150
         153
         156
         159
         162
         165
         168
         171
         174
             </DataArray>
             <DataArray type="UInt32" Name="types" Format="ascii">
 5  5  5  5  5  5  5  5  5  5  5  5  5  5  5  5  5  5  5  5  5  5  5  5  5  5  5  5  5  5  5  5  5  5  5  5  5  5  5  5  5  5  5  5  5  5  5  5  5  5  5  5  5  5  5  5  5  5
             </DataArray>
          </Cells>
       </Piece>
    </UnstructuredGrid>
 </VTKFile>
