 <VTKFile type="UnstructuredGrid" version="0.1" byte_order="BigEndian">
    <UnstructuredGrid>
       <Piece NumberOfPoints="          48" NumberOfCells="          71 ">
          <PointData Scalars="scalars">
              <DataArray type="UInt32" NumberOfComponents="1" Name="vertex partitioning" Format="ascii">
           0
           0
           0
           0
           0
           0
           0
           0
           0
           0
           0
           0
           0
           0
           0
           0
           0
           0
           0
           0
           0
           0
           0
           0
           0
           0
           0
           0
           0
           0
           0
           0
           0
           0
           0
           0
           0
           0
           0
           0
           0
           0
           0
           0
           0
           0
           0
           0
              </DataArray>
          </PointData>
          <CellData Scalars="scalars">
              <DataArray type="UInt32" NumberOfComponents="1" Name="Element partitioning" Format="ascii">
           0
           0
           0
           0
           0
           0
           0
           0
           0
           0
           0
           0
           0
           0
           0
           0
           0
           0
           0
           0
           0
           0
           0
           0
           0
           0
           0
           0
           0
           0
           0
           0
           0
           0
           0
           0
           0
           0
           0
           0
           0
           0
           0
           0
           0
           0
           0
           0
           0
           0
           0
           0
           0
           0
           0
           0
           0
           0
           0
           0
           0
           0
           0
           0
           0
           0
           0
           0
           0
           0
           0
              </DataArray>
          </CellData>
          <Points>
             <DataArray type="Float32" NumberOfComponents="3" Name="Vertex coordinates" Format="ascii">
   0.0000000000000000        0.0000000000000000                0
  0.10000000000000001        0.0000000000000000                0
  0.20000000000000001        0.0000000000000000                0
  0.30000000000000004        0.0000000000000000                0
  0.40000000000000002        0.0000000000000000                0
  0.50000000000000000        0.0000000000000000                0
  0.60000000000000009        0.0000000000000000                0
   0.0000000000000000       0.10000000000000001                0
  0.10000000000000001       0.10000000000000001                0
  0.20000000000000001       0.10000000000000001                0
  0.30000000000000004       0.10000000000000001                0
  0.40000000000000002       0.10000000000000001                0
  0.50000000000000000       0.10000000000000001                0
  0.60000000000000009       0.10000000000000001                0
   0.0000000000000000       0.20000000000000001                0
  0.10000000000000001       0.20000000000000001                0
  0.20000000000000001       0.20000000000000001                0
  0.30000000000000004       0.20000000000000001                0
  0.40000000000000002       0.20000000000000001                0
  0.50000000000000000       0.20000000000000001                0
  0.60000000000000009       0.20000000000000001                0
   0.0000000000000000       0.30000000000000004                0
  0.10000000000000001       0.30000000000000004                0
  0.20000000000000001       0.30000000000000004                0
  0.30000000000000004       0.30000000000000004                0
  0.40000000000000002       0.30000000000000004                0
  0.50000000000000000       0.30000000000000004                0
  0.60000000000000009       0.30000000000000004                0
   0.0000000000000000       0.40000000000000002                0
  0.10000000000000001       0.40000000000000002                0
  0.20000000000000001       0.40000000000000002                0
  0.30000000000000004       0.40000000000000002                0
  0.40000000000000002       0.40000000000000002                0
  0.50000000000000000       0.40000000000000002                0
  0.60000000000000009       0.40000000000000002                0
   0.0000000000000000       0.50000000000000000                0
  0.10000000000000001       0.50000000000000000                0
  0.20000000000000001       0.50000000000000000                0
  0.30000000000000004       0.50000000000000000                0
  0.40000000000000002       0.50000000000000000                0
  0.50000000000000000       0.50000000000000000                0
  0.60000000000000009       0.50000000000000000                0
   0.0000000000000000       0.60000000000000009                0
  0.10000000000000001       0.60000000000000009                0
  0.20000000000000001       0.60000000000000009                0
  0.30000000000000004       0.60000000000000009                0
  0.40000000000000002       0.60000000000000009                0
  0.50000000000000000       0.60000000000000009                0
             </DataArray>
          </Points>
          <Cells>
             <DataArray type="UInt64" Name="connectivity" Format="ascii">
           1           9           8
           1           2           9
           2          10           9
           2           3          10
           3          11          10
           3           4          11
           4          12          11
           4           5          12
           5          13          12
           5           6          13
           6          14          13
           6           7          14
           8          16          15
           8           9          16
           9          17          16
           9          10          17
          10          18          17
          10          11          18
          11          19          18
          11          12          19
          12          20          19
          12          13          20
          13          21          20
          13          14          21
          15          23          22
          15          16          23
          16          24          23
          16          17          24
          17          25          24
          17          18          25
          18          26          25
          18          19          26
          19          27          26
          19          20          27
          20          28          27
          20          21          28
          22          30          29
          22          23          30
          23          31          30
          23          24          31
          24          32          31
          24          25          32
          25          33          32
          25          26          33
          26          34          33
          26          27          34
          27          35          34
          27          28          35
          29          37          36
          29          30          37
          30          38          37
          30          31          38
          31          39          38
          31          32          39
          32          40          39
          32          33          40
          33          41          40
          33          34          41
          34          42          41
          34          35          42
          36          44          43
          36          37          44
          37          45          44
          37          38          45
          38          46          45
          38          39          46
          39          47          46
          39          40          47
          40          48          47
          40          41          48
          41          49          48
             </DataArray>
             <DataArray type="Int32" Name="types" Format="ascii">
 5  5  5  5  5  5  5  5  5  5  5  5  5  5  5  5  5  5  5  5  5  5  5  5  5  5  5  5  5  5  5  5  5  5  5  5  5  5  5  5  5  5  5  5  5  5  5  5  5  5  5  5  5  5  5  5  5  5  5  5  5  5  5  5  5  5  5  5  5  5  5
             </DataArray>
             <DataArray type="UInt32" Name="offsets" Format="ascii">
           3
           6
           9
          12
          15
          18
          21
          24
          27
          30
          33
          36
          39
          42
          45
          48
          51
          54
          57
          60
          63
          66
          69
          72
          75
          78
          81
          84
          87
          90
          93
          96
          99
         102
         105
         108
         111
         114
         117
         120
         123
         126
         129
         132
         135
         138
         141
         144
         147
         150
         153
         156
         159
         162
         165
         168
         171
         174
         177
         180
         183
         186
         189
         192
         195
         198
         201
         204
         207
         210
         213
             </DataArray>
          </Cells>
       </Piece>
    </UnstructuredGrid>
 </VTKFile>
